n -t * -s 0  -x 401 -y 800 -Z 0 -z 05  -v circle -c black
n -t * -s 1  -x 399 -y 2 -Z 0 -z 05  -v circle -c black
n -t * -s 2  -x 899 -y 800 -Z 0 -z 05  -v circle -c black
n -t * -s 3  -x 899 -y 1 -Z 0 -z 05  -v circle -c black
n -t * -s 4  -x 650 -y 701 -Z 0 -z 05  -v circle -c black
n -t * -s 5  -x 647 -y 600 -Z 0 -z 05  -v circle -c black
n -t * -s 6  -x 644 -y 400 -Z 0 -z 05  -v circle -c black
n -t * -s 7  -x 644 -y 300 -Z 0 -z 05  -v circle -c black
n -t * -s 8  -x 644 -y 109 -Z 0 -z 05  -v circle -c black
n -t * -s 9  -x 643 -y 25 -Z 0 -z 05  -v circle -c black
n -t * -s 10  -x 590.18299999999999 -y 354.40899999999999 -Z 0 -z 20  -v circle -c black
n -t * -s 11  -x 590.18299999999999 -y 268.84300000000002 -Z 0 -z 20  -v circle -c black
n -t * -s 12  -x 590.18299999999999 -y 172.98699999999999 -Z 0 -z 20  -v circle -c black
n -t * -s 13  -x 590.18299999999999 -y 76.132099999999994 -Z 0 -z 20  -v circle -c black
n -t * -s 14  -x 701.60199999999998 -y 810.83399999999995 -Z 0 -z 20  -v circle -c black
n -t * -s 15  -x 701.60199999999998 -y 729.48500000000001 -Z 0 -z 20  -v circle -c black
n -t * -s 16  -x 701.60199999999998 -y 645.06299999999999 -Z 0 -z 20  -v circle -c black
n -t * -s 17  -x 701.60199999999998 -y 566.78599999999994 -Z 0 -z 20  -v circle -c black
V -t * -v 1.0a5 -a 0
W -t * -x 1366 -y 1000
A -t * -n 1 -p 0 -o 0x7fffffff -c 30 -a 1
A -t * -h 1 -m 1073741823 -s 0
l -t * -s 0 -d 1 -S UP -r 100000000 -D 0.01 -c yellow
l -t * -s 2 -d 3 -S UP -r 100000000 -D 0.01 -c yellow
l -t * -s 4 -d 5 -S UP -r 100000000 -D 0.01 -c white
l -t * -s 6 -d 7 -S UP -r 100000000 -D 0.01 -c white
l -t * -s 8 -d 9 -S UP -r 100000000 -D 0.01 -c white
n -t 0 -s 0 -S COLOR -c black -o black -i black -I black
n -t 0 -s 1 -S COLOR -c black -o black -i black -I black
n -t 0 -s 2 -S COLOR -c black -o black -i black -I black
n -t 0 -s 3 -S COLOR -c black -o black -i black -I black
n -t 0 -s 4 -S COLOR -c black -o black -i black -I black
n -t 0 -s 5 -S COLOR -c black -o black -i black -I black
n -t 0 -s 6 -S COLOR -c black -o black -i black -I black
n -t 0 -s 7 -S COLOR -c black -o black -i black -I black
n -t 0 -s 8 -S COLOR -c black -o black -i black -I black
n -t 0 -s 9 -S COLOR -c black -o black -i black -I black
n -t 0 -s 10 -S DLABEL -l "CAR1" -L ""
n -t 0 -s 11 -S DLABEL -l "CAR2" -L ""
n -t 0 -s 12 -S DLABEL -l "CAR3" -L ""
n -t 0 -s 13 -S DLABEL -l "CAR4" -L ""
n -t 0 -s 14 -S DLABEL -l "CAR5" -L ""
n -t 0 -s 15 -S DLABEL -l "CAR6" -L ""
n -t 0 -s 16 -S DLABEL -l "CAR7" -L ""
n -t 0 -s 17 -S DLABEL -l "CAR8" -L ""
m -t 0 -s 10 -n m2 -c green -h hexagon
m -t 0 -s 11 -n m2 -c green -h hexagon
m -t 0 -s 12 -n m2 -c green -h hexagon
m -t 0 -s 13 -n m2 -c green -h hexagon
m -t 0 -s 14 -n m2 -c green -h hexagon
m -t 0 -s 15 -n m2 -c green -h hexagon
m -t 0 -s 16 -n m2 -c green -h hexagon
m -t 0 -s 17 -n m2 -c green -h hexagon
+ -t 0.090775603 -s 7 -d -1 -p message -e 32 -c 2 -a 0 -i 0 -k RTR 
- -t 0.090775603 -s 7 -d -1 -p message -e 32 -c 2 -a 0 -i 0 -k RTR
h -t 0.090775603 -s 7 -d -1 -p message -e 32 -c 2 -a 0 -i 0 -k RTR
+ -t 0.091030603 -s 7 -d -1 -p message -e 90 -c 2 -a 0 -i 0 -k MAC 
- -t 0.091030603 -s 7 -d -1 -p message -e 90 -c 2 -a 0 -i 0 -k MAC
h -t 0.091030603 -s 7 -d -1 -p message -e 90 -c 2 -a 0 -i 0 -k MAC
r -t 0.091750811 -s 11 -d -1 -p message -e 32 -c 2 -a 0 -i 0 -k MAC
r -t 0.091750859 -s 10 -d -1 -p message -e 32 -c 2 -a 0 -i 0 -k MAC
r -t 0.091750937 -s 6 -d -1 -p message -e 32 -c 2 -a 0 -i 0 -k MAC
r -t 0.091751063 -s 12 -d -1 -p message -e 32 -c 2 -a 0 -i 0 -k MAC
r -t 0.091751240 -s 8 -d -1 -p message -e 32 -c 2 -a 0 -i 0 -k MAC
r -t 0.091751371 -s 13 -d -1 -p message -e 32 -c 2 -a 0 -i 0 -k MAC
r -t 0.091775811 -s 11 -d -1 -p message -e 32 -c 2 -a 0 -i 0 -k RTR
r -t 0.091775859 -s 10 -d -1 -p message -e 32 -c 2 -a 0 -i 0 -k RTR
r -t 0.091775937 -s 6 -d -1 -p message -e 32 -c 2 -a 0 -i 0 -k RTR
r -t 0.091776063 -s 12 -d -1 -p message -e 32 -c 2 -a 0 -i 0 -k RTR
r -t 0.091776240 -s 8 -d -1 -p message -e 32 -c 2 -a 0 -i 0 -k RTR
r -t 0.091776371 -s 13 -d -1 -p message -e 32 -c 2 -a 0 -i 0 -k RTR
+ -t 0.196675961 -s 13 -d -1 -p message -e 32 -c 2 -a 0 -i 1 -k RTR 
- -t 0.196675961 -s 13 -d -1 -p message -e 32 -c 2 -a 0 -i 1 -k RTR
h -t 0.196675961 -s 13 -d -1 -p message -e 32 -c 2 -a 0 -i 1 -k RTR
+ -t 0.197110961 -s 13 -d -1 -p message -e 90 -c 2 -a 0 -i 1 -k MAC 
- -t 0.197110961 -s 13 -d -1 -p message -e 90 -c 2 -a 0 -i 1 -k MAC
h -t 0.197110961 -s 13 -d -1 -p message -e 90 -c 2 -a 0 -i 1 -k MAC
r -t 0.197831171 -s 8 -d -1 -p message -e 32 -c 2 -a 0 -i 1 -k MAC
r -t 0.197831206 -s 9 -d -1 -p message -e 32 -c 2 -a 0 -i 1 -k MAC
r -t 0.197831284 -s 12 -d -1 -p message -e 32 -c 2 -a 0 -i 1 -k MAC
r -t 0.197831604 -s 11 -d -1 -p message -e 32 -c 2 -a 0 -i 1 -k MAC
r -t 0.197831645 -s 1 -d -1 -p message -e 32 -c 2 -a 0 -i 1 -k MAC
r -t 0.197831729 -s 7 -d -1 -p message -e 32 -c 2 -a 0 -i 1 -k MAC
r -t 0.197856171 -s 8 -d -1 -p message -e 32 -c 2 -a 0 -i 1 -k RTR
r -t 0.197856206 -s 9 -d -1 -p message -e 32 -c 2 -a 0 -i 1 -k RTR
r -t 0.197856284 -s 12 -d -1 -p message -e 32 -c 2 -a 0 -i 1 -k RTR
r -t 0.197856604 -s 11 -d -1 -p message -e 32 -c 2 -a 0 -i 1 -k RTR
r -t 0.197856645 -s 1 -d -1 -p message -e 32 -c 2 -a 0 -i 1 -k RTR
r -t 0.197856729 -s 7 -d -1 -p message -e 32 -c 2 -a 0 -i 1 -k RTR
+ -t 0.234389987 -s 9 -d -1 -p message -e 32 -c 2 -a 0 -i 2 -k RTR 
- -t 0.234389987 -s 9 -d -1 -p message -e 32 -c 2 -a 0 -i 2 -k RTR
h -t 0.234389987 -s 9 -d -1 -p message -e 32 -c 2 -a 0 -i 2 -k RTR
+ -t 0.234604987 -s 9 -d -1 -p message -e 90 -c 2 -a 0 -i 2 -k MAC 
- -t 0.234604987 -s 9 -d -1 -p message -e 90 -c 2 -a 0 -i 2 -k MAC
h -t 0.234604987 -s 9 -d -1 -p message -e 90 -c 2 -a 0 -i 2 -k MAC
r -t 0.235325232 -s 13 -d -1 -p message -e 32 -c 2 -a 0 -i 2 -k MAC
r -t 0.235325267 -s 8 -d -1 -p message -e 32 -c 2 -a 0 -i 2 -k MAC
r -t 0.235325510 -s 12 -d -1 -p message -e 32 -c 2 -a 0 -i 2 -k MAC
r -t 0.235325804 -s 1 -d -1 -p message -e 32 -c 2 -a 0 -i 2 -k MAC
r -t 0.235325818 -s 11 -d -1 -p message -e 32 -c 2 -a 0 -i 2 -k MAC
r -t 0.235350232 -s 13 -d -1 -p message -e 32 -c 2 -a 0 -i 2 -k RTR
r -t 0.235350267 -s 8 -d -1 -p message -e 32 -c 2 -a 0 -i 2 -k RTR
r -t 0.235350510 -s 12 -d -1 -p message -e 32 -c 2 -a 0 -i 2 -k RTR
r -t 0.235350804 -s 1 -d -1 -p message -e 32 -c 2 -a 0 -i 2 -k RTR
r -t 0.235350818 -s 11 -d -1 -p message -e 32 -c 2 -a 0 -i 2 -k RTR
+ -t 0.329382798 -s 6 -d -1 -p message -e 32 -c 2 -a 0 -i 3 -k RTR 
- -t 0.329382798 -s 6 -d -1 -p message -e 32 -c 2 -a 0 -i 3 -k RTR
h -t 0.329382798 -s 6 -d -1 -p message -e 32 -c 2 -a 0 -i 3 -k RTR
+ -t 0.329557798 -s 6 -d -1 -p message -e 90 -c 2 -a 0 -i 3 -k MAC 
- -t 0.329557798 -s 6 -d -1 -p message -e 90 -c 2 -a 0 -i 3 -k MAC
h -t 0.329557798 -s 6 -d -1 -p message -e 90 -c 2 -a 0 -i 3 -k MAC
r -t 0.330278033 -s 10 -d -1 -p message -e 32 -c 2 -a 0 -i 3 -k MAC
r -t 0.330278131 -s 7 -d -1 -p message -e 32 -c 2 -a 0 -i 3 -k MAC
r -t 0.330278270 -s 11 -d -1 -p message -e 32 -c 2 -a 0 -i 3 -k MAC
r -t 0.330278386 -s 17 -d -1 -p message -e 32 -c 2 -a 0 -i 3 -k MAC
r -t 0.330278465 -s 5 -d -1 -p message -e 32 -c 2 -a 0 -i 3 -k MAC
r -t 0.330278576 -s 12 -d -1 -p message -e 32 -c 2 -a 0 -i 3 -k MAC
r -t 0.330303033 -s 10 -d -1 -p message -e 32 -c 2 -a 0 -i 3 -k RTR
r -t 0.330303131 -s 7 -d -1 -p message -e 32 -c 2 -a 0 -i 3 -k RTR
r -t 0.330303270 -s 11 -d -1 -p message -e 32 -c 2 -a 0 -i 3 -k RTR
r -t 0.330303386 -s 17 -d -1 -p message -e 32 -c 2 -a 0 -i 3 -k RTR
r -t 0.330303465 -s 5 -d -1 -p message -e 32 -c 2 -a 0 -i 3 -k RTR
r -t 0.330303576 -s 12 -d -1 -p message -e 32 -c 2 -a 0 -i 3 -k RTR
+ -t 0.359073157 -s 12 -d -1 -p message -e 32 -c 2 -a 0 -i 4 -k RTR 
- -t 0.359073157 -s 12 -d -1 -p message -e 32 -c 2 -a 0 -i 4 -k RTR
h -t 0.359073157 -s 12 -d -1 -p message -e 32 -c 2 -a 0 -i 4 -k RTR
+ -t 0.359728157 -s 12 -d -1 -p message -e 90 -c 2 -a 0 -i 4 -k MAC 
- -t 0.359728157 -s 12 -d -1 -p message -e 90 -c 2 -a 0 -i 4 -k MAC
h -t 0.359728157 -s 12 -d -1 -p message -e 90 -c 2 -a 0 -i 4 -k MAC
r -t 0.360448436 -s 8 -d -1 -p message -e 32 -c 2 -a 0 -i 4 -k MAC
r -t 0.360448477 -s 11 -d -1 -p message -e 32 -c 2 -a 0 -i 4 -k MAC
r -t 0.360448480 -s 13 -d -1 -p message -e 32 -c 2 -a 0 -i 4 -k MAC
r -t 0.360448617 -s 7 -d -1 -p message -e 32 -c 2 -a 0 -i 4 -k MAC
r -t 0.360448681 -s 9 -d -1 -p message -e 32 -c 2 -a 0 -i 4 -k MAC
r -t 0.360448762 -s 10 -d -1 -p message -e 32 -c 2 -a 0 -i 4 -k MAC
r -t 0.360448935 -s 6 -d -1 -p message -e 32 -c 2 -a 0 -i 4 -k MAC
r -t 0.360473436 -s 8 -d -1 -p message -e 32 -c 2 -a 0 -i 4 -k RTR
r -t 0.360473477 -s 11 -d -1 -p message -e 32 -c 2 -a 0 -i 4 -k RTR
r -t 0.360473480 -s 13 -d -1 -p message -e 32 -c 2 -a 0 -i 4 -k RTR
r -t 0.360473617 -s 7 -d -1 -p message -e 32 -c 2 -a 0 -i 4 -k RTR
r -t 0.360473681 -s 9 -d -1 -p message -e 32 -c 2 -a 0 -i 4 -k RTR
r -t 0.360473762 -s 10 -d -1 -p message -e 32 -c 2 -a 0 -i 4 -k RTR
r -t 0.360473935 -s 6 -d -1 -p message -e 32 -c 2 -a 0 -i 4 -k RTR
n -t 0.400000 -s 10 -x 590.183000 -y 354.409000 -U -0.494947 -V 49.997550 -T 4.186305
n -t 0.400000 -s 11 -x 590.183000 -y 268.843000 -U -0.549333 -V 49.996982 -T 3.771848
n -t 0.400000 -s 12 -x 590.183000 -y 172.987000 -U -0.602271 -V 49.996373 -T 3.440310
n -t 0.400000 -s 13 -x 590.183000 -y 76.132100 -U -0.632761 -V 49.995996 -T 3.274540
n -t 0.400000 -s 14 -x 701.602000 -y 810.834000 -U -3.918610 -V -84.909625 -T 3.172809
n -t 0.400000 -s 15 -x 701.602000 -y 729.485000 -U -3.442856 -V -84.930246 -T 3.611246
n -t 0.400000 -s 16 -x 701.602000 -y 645.063000 -U -3.538277 -V -84.926325 -T 3.513857
n -t 0.400000 -s 17 -x 701.602000 -y 566.786000 -U -3.442867 -V -84.930246 -T 3.611234
+ -t 0.469311587 -s 2 -d -1 -p message -e 32 -c 2 -a 0 -i 5 -k RTR 
- -t 0.469311587 -s 2 -d -1 -p message -e 32 -c 2 -a 0 -i 5 -k RTR
h -t 0.469311587 -s 2 -d -1 -p message -e 32 -c 2 -a 0 -i 5 -k RTR
+ -t 0.469886587 -s 2 -d -1 -p message -e 90 -c 2 -a 0 -i 5 -k MAC 
- -t 0.469886587 -s 2 -d -1 -p message -e 90 -c 2 -a 0 -i 5 -k MAC
h -t 0.469886587 -s 2 -d -1 -p message -e 90 -c 2 -a 0 -i 5 -k MAC
r -t 0.470607246 -s 14 -d -1 -p message -e 32 -c 2 -a 0 -i 5 -k MAC
r -t 0.470607293 -s 15 -d -1 -p message -e 32 -c 2 -a 0 -i 5 -k MAC
r -t 0.470632246 -s 14 -d -1 -p message -e 32 -c 2 -a 0 -i 5 -k RTR
r -t 0.470632293 -s 15 -d -1 -p message -e 32 -c 2 -a 0 -i 5 -k RTR
+ -t 0.522862137 -s 16 -d -1 -p message -e 32 -c 2 -a 0 -i 6 -k RTR 
- -t 0.522862137 -s 16 -d -1 -p message -e 32 -c 2 -a 0 -i 6 -k RTR
h -t 0.522862137 -s 16 -d -1 -p message -e 32 -c 2 -a 0 -i 6 -k RTR
+ -t 0.523417137 -s 16 -d -1 -p message -e 90 -c 2 -a 0 -i 6 -k MAC 
- -t 0.523417137 -s 16 -d -1 -p message -e 90 -c 2 -a 0 -i 6 -k MAC
h -t 0.523417137 -s 16 -d -1 -p message -e 90 -c 2 -a 0 -i 6 -k MAC
r -t 0.524137351 -s 5 -d -1 -p message -e 32 -c 2 -a 0 -i 6 -k MAC
r -t 0.524137397 -s 17 -d -1 -p message -e 32 -c 2 -a 0 -i 6 -k MAC
r -t 0.524137416 -s 4 -d -1 -p message -e 32 -c 2 -a 0 -i 6 -k MAC
r -t 0.524137418 -s 15 -d -1 -p message -e 32 -c 2 -a 0 -i 6 -k MAC
r -t 0.524137689 -s 14 -d -1 -p message -e 32 -c 2 -a 0 -i 6 -k MAC
r -t 0.524137941 -s 6 -d -1 -p message -e 32 -c 2 -a 0 -i 6 -k MAC
r -t 0.524162351 -s 5 -d -1 -p message -e 32 -c 2 -a 0 -i 6 -k RTR
r -t 0.524162397 -s 17 -d -1 -p message -e 32 -c 2 -a 0 -i 6 -k RTR
r -t 0.524162416 -s 4 -d -1 -p message -e 32 -c 2 -a 0 -i 6 -k RTR
r -t 0.524162418 -s 15 -d -1 -p message -e 32 -c 2 -a 0 -i 6 -k RTR
r -t 0.524162689 -s 14 -d -1 -p message -e 32 -c 2 -a 0 -i 6 -k RTR
r -t 0.524162941 -s 6 -d -1 -p message -e 32 -c 2 -a 0 -i 6 -k RTR
+ -t 0.626924672 -s 4 -d -1 -p message -e 32 -c 2 -a 0 -i 7 -k RTR 
- -t 0.626924672 -s 4 -d -1 -p message -e 32 -c 2 -a 0 -i 7 -k RTR
h -t 0.626924672 -s 4 -d -1 -p message -e 32 -c 2 -a 0 -i 7 -k RTR
+ -t 0.627079672 -s 4 -d -1 -p message -e 90 -c 2 -a 0 -i 7 -k MAC 
- -t 0.627079672 -s 4 -d -1 -p message -e 90 -c 2 -a 0 -i 7 -k MAC
h -t 0.627079672 -s 4 -d -1 -p message -e 90 -c 2 -a 0 -i 7 -k MAC
r -t 0.627799845 -s 15 -d -1 -p message -e 32 -c 2 -a 0 -i 7 -k MAC
r -t 0.627799975 -s 16 -d -1 -p message -e 32 -c 2 -a 0 -i 7 -k MAC
r -t 0.627800009 -s 5 -d -1 -p message -e 32 -c 2 -a 0 -i 7 -k MAC
r -t 0.627800018 -s 14 -d -1 -p message -e 32 -c 2 -a 0 -i 7 -k MAC
r -t 0.627800211 -s 17 -d -1 -p message -e 32 -c 2 -a 0 -i 7 -k MAC
r -t 0.627824845 -s 15 -d -1 -p message -e 32 -c 2 -a 0 -i 7 -k RTR
r -t 0.627824975 -s 16 -d -1 -p message -e 32 -c 2 -a 0 -i 7 -k RTR
r -t 0.627825009 -s 5 -d -1 -p message -e 32 -c 2 -a 0 -i 7 -k RTR
r -t 0.627825018 -s 14 -d -1 -p message -e 32 -c 2 -a 0 -i 7 -k RTR
r -t 0.627825211 -s 17 -d -1 -p message -e 32 -c 2 -a 0 -i 7 -k RTR
+ -t 0.631471940 -s 0 -d -1 -p message -e 32 -c 2 -a 0 -i 8 -k RTR 
- -t 0.631471940 -s 0 -d -1 -p message -e 32 -c 2 -a 0 -i 8 -k RTR
h -t 0.631471940 -s 0 -d -1 -p message -e 32 -c 2 -a 0 -i 8 -k RTR
+ -t 0.631546940 -s 0 -d -1 -p message -e 90 -c 2 -a 0 -i 8 -k MAC 
- -t 0.631546940 -s 0 -d -1 -p message -e 90 -c 2 -a 0 -i 8 -k MAC
h -t 0.631546940 -s 0 -d -1 -p message -e 90 -c 2 -a 0 -i 8 -k MAC
+ -t 0.706950213 -s 15 -d -1 -p message -e 32 -c 2 -a 0 -i 9 -k RTR 
- -t 0.706950213 -s 15 -d -1 -p message -e 32 -c 2 -a 0 -i 9 -k RTR
h -t 0.706950213 -s 15 -d -1 -p message -e 32 -c 2 -a 0 -i 9 -k RTR
+ -t 0.707045213 -s 15 -d -1 -p message -e 90 -c 2 -a 0 -i 9 -k MAC 
- -t 0.707045213 -s 15 -d -1 -p message -e 90 -c 2 -a 0 -i 9 -k MAC
h -t 0.707045213 -s 15 -d -1 -p message -e 90 -c 2 -a 0 -i 9 -k MAC
r -t 0.707765382 -s 4 -d -1 -p message -e 32 -c 2 -a 0 -i 9 -k MAC
r -t 0.707765484 -s 14 -d -1 -p message -e 32 -c 2 -a 0 -i 9 -k MAC
r -t 0.707765494 -s 16 -d -1 -p message -e 32 -c 2 -a 0 -i 9 -k MAC
r -t 0.707765601 -s 5 -d -1 -p message -e 32 -c 2 -a 0 -i 9 -k MAC
r -t 0.707765755 -s 17 -d -1 -p message -e 32 -c 2 -a 0 -i 9 -k MAC
r -t 0.707765949 -s 2 -d -1 -p message -e 32 -c 2 -a 0 -i 9 -k MAC
r -t 0.707790382 -s 4 -d -1 -p message -e 32 -c 2 -a 0 -i 9 -k RTR
r -t 0.707790484 -s 14 -d -1 -p message -e 32 -c 2 -a 0 -i 9 -k RTR
r -t 0.707790494 -s 16 -d -1 -p message -e 32 -c 2 -a 0 -i 9 -k RTR
r -t 0.707790601 -s 5 -d -1 -p message -e 32 -c 2 -a 0 -i 9 -k RTR
r -t 0.707790755 -s 17 -d -1 -p message -e 32 -c 2 -a 0 -i 9 -k RTR
r -t 0.707790949 -s 2 -d -1 -p message -e 32 -c 2 -a 0 -i 9 -k RTR
+ -t 0.819158631 -s 17 -d -1 -p message -e 32 -c 2 -a 0 -i 10 -k RTR 
- -t 0.819158631 -s 17 -d -1 -p message -e 32 -c 2 -a 0 -i 10 -k RTR
h -t 0.819158631 -s 17 -d -1 -p message -e 32 -c 2 -a 0 -i 10 -k RTR
+ -t 0.819533631 -s 17 -d -1 -p message -e 90 -c 2 -a 0 -i 10 -k MAC 
- -t 0.819533631 -s 17 -d -1 -p message -e 90 -c 2 -a 0 -i 10 -k MAC
h -t 0.819533631 -s 17 -d -1 -p message -e 90 -c 2 -a 0 -i 10 -k MAC
r -t 0.820253892 -s 16 -d -1 -p message -e 32 -c 2 -a 0 -i 10 -k MAC
r -t 0.820253921 -s 5 -d -1 -p message -e 32 -c 2 -a 0 -i 10 -k MAC
r -t 0.820254106 -s 6 -d -1 -p message -e 32 -c 2 -a 0 -i 10 -k MAC
r -t 0.820254173 -s 15 -d -1 -p message -e 32 -c 2 -a 0 -i 10 -k MAC
r -t 0.820254221 -s 4 -d -1 -p message -e 32 -c 2 -a 0 -i 10 -k MAC
r -t 0.820254267 -s 10 -d -1 -p message -e 32 -c 2 -a 0 -i 10 -k MAC
r -t 0.820254424 -s 7 -d -1 -p message -e 32 -c 2 -a 0 -i 10 -k MAC
r -t 0.820254444 -s 14 -d -1 -p message -e 32 -c 2 -a 0 -i 10 -k MAC
r -t 0.820278892 -s 16 -d -1 -p message -e 32 -c 2 -a 0 -i 10 -k RTR
r -t 0.820278921 -s 5 -d -1 -p message -e 32 -c 2 -a 0 -i 10 -k RTR
r -t 0.820279106 -s 6 -d -1 -p message -e 32 -c 2 -a 0 -i 10 -k RTR
r -t 0.820279173 -s 15 -d -1 -p message -e 32 -c 2 -a 0 -i 10 -k RTR
r -t 0.820279221 -s 4 -d -1 -p message -e 32 -c 2 -a 0 -i 10 -k RTR
r -t 0.820279267 -s 10 -d -1 -p message -e 32 -c 2 -a 0 -i 10 -k RTR
r -t 0.820279424 -s 7 -d -1 -p message -e 32 -c 2 -a 0 -i 10 -k RTR
r -t 0.820279444 -s 14 -d -1 -p message -e 32 -c 2 -a 0 -i 10 -k RTR
+ -t 0.847814807 -s 11 -d -1 -p message -e 32 -c 2 -a 0 -i 11 -k RTR 
- -t 0.847814807 -s 11 -d -1 -p message -e 32 -c 2 -a 0 -i 11 -k RTR
h -t 0.847814807 -s 11 -d -1 -p message -e 32 -c 2 -a 0 -i 11 -k RTR
+ -t 0.848089807 -s 11 -d -1 -p message -e 90 -c 2 -a 0 -i 11 -k MAC 
- -t 0.848089807 -s 11 -d -1 -p message -e 90 -c 2 -a 0 -i 11 -k MAC
h -t 0.848089807 -s 11 -d -1 -p message -e 90 -c 2 -a 0 -i 11 -k MAC
r -t 0.848809989 -s 7 -d -1 -p message -e 32 -c 2 -a 0 -i 11 -k MAC
r -t 0.848810092 -s 10 -d -1 -p message -e 32 -c 2 -a 0 -i 11 -k MAC
r -t 0.848810126 -s 12 -d -1 -p message -e 32 -c 2 -a 0 -i 11 -k MAC
r -t 0.848810211 -s 6 -d -1 -p message -e 32 -c 2 -a 0 -i 11 -k MAC
r -t 0.848810440 -s 8 -d -1 -p message -e 32 -c 2 -a 0 -i 11 -k MAC
r -t 0.848810449 -s 13 -d -1 -p message -e 32 -c 2 -a 0 -i 11 -k MAC
r -t 0.848834989 -s 7 -d -1 -p message -e 32 -c 2 -a 0 -i 11 -k RTR
r -t 0.848835092 -s 10 -d -1 -p message -e 32 -c 2 -a 0 -i 11 -k RTR
r -t 0.848835126 -s 12 -d -1 -p message -e 32 -c 2 -a 0 -i 11 -k RTR
r -t 0.848835211 -s 6 -d -1 -p message -e 32 -c 2 -a 0 -i 11 -k RTR
r -t 0.848835440 -s 8 -d -1 -p message -e 32 -c 2 -a 0 -i 11 -k RTR
r -t 0.848835449 -s 13 -d -1 -p message -e 32 -c 2 -a 0 -i 11 -k RTR
+ -t 1.281942487 -s 3 -d -1 -p message -e 32 -c 2 -a 0 -i 12 -k RTR 
- -t 1.281942487 -s 3 -d -1 -p message -e 32 -c 2 -a 0 -i 12 -k RTR
h -t 1.281942487 -s 3 -d -1 -p message -e 32 -c 2 -a 0 -i 12 -k RTR
+ -t 1.282357487 -s 3 -d -1 -p message -e 90 -c 2 -a 0 -i 12 -k MAC 
- -t 1.282357487 -s 3 -d -1 -p message -e 90 -c 2 -a 0 -i 12 -k MAC
h -t 1.282357487 -s 3 -d -1 -p message -e 90 -c 2 -a 0 -i 12 -k MAC
+ -t 1.288279320 -s 8 -d -1 -p message -e 32 -c 2 -a 0 -i 13 -k RTR 
- -t 1.288279320 -s 8 -d -1 -p message -e 32 -c 2 -a 0 -i 13 -k RTR
h -t 1.288279320 -s 8 -d -1 -p message -e 32 -c 2 -a 0 -i 13 -k RTR
+ -t 1.288474320 -s 8 -d -1 -p message -e 90 -c 2 -a 0 -i 13 -k MAC 
- -t 1.288474320 -s 8 -d -1 -p message -e 90 -c 2 -a 0 -i 13 -k MAC
h -t 1.288474320 -s 8 -d -1 -p message -e 90 -c 2 -a 0 -i 13 -k MAC
r -t 1.289194505 -s 13 -d -1 -p message -e 32 -c 2 -a 0 -i 13 -k MAC
r -t 1.289194600 -s 9 -d -1 -p message -e 32 -c 2 -a 0 -i 13 -k MAC
r -t 1.289194724 -s 12 -d -1 -p message -e 32 -c 2 -a 0 -i 13 -k MAC
r -t 1.289194956 -s 7 -d -1 -p message -e 32 -c 2 -a 0 -i 13 -k MAC
r -t 1.289195024 -s 11 -d -1 -p message -e 32 -c 2 -a 0 -i 13 -k MAC
r -t 1.289219505 -s 13 -d -1 -p message -e 32 -c 2 -a 0 -i 13 -k RTR
r -t 1.289219600 -s 9 -d -1 -p message -e 32 -c 2 -a 0 -i 13 -k RTR
r -t 1.289219724 -s 12 -d -1 -p message -e 32 -c 2 -a 0 -i 13 -k RTR
r -t 1.289219956 -s 7 -d -1 -p message -e 32 -c 2 -a 0 -i 13 -k RTR
r -t 1.289220024 -s 11 -d -1 -p message -e 32 -c 2 -a 0 -i 13 -k RTR
+ -t 1.622077226 -s 14 -d -1 -p message -e 32 -c 2 -a 0 -i 14 -k RTR 
- -t 1.622077226 -s 14 -d -1 -p message -e 32 -c 2 -a 0 -i 14 -k RTR
h -t 1.622077226 -s 14 -d -1 -p message -e 32 -c 2 -a 0 -i 14 -k RTR
+ -t 1.622752226 -s 14 -d -1 -p message -e 90 -c 2 -a 0 -i 14 -k MAC 
- -t 1.622752226 -s 14 -d -1 -p message -e 90 -c 2 -a 0 -i 14 -k MAC
h -t 1.622752226 -s 14 -d -1 -p message -e 90 -c 2 -a 0 -i 14 -k MAC
r -t 1.623472383 -s 4 -d -1 -p message -e 32 -c 2 -a 0 -i 14 -k MAC
r -t 1.623472497 -s 15 -d -1 -p message -e 32 -c 2 -a 0 -i 14 -k MAC
r -t 1.623472619 -s 5 -d -1 -p message -e 32 -c 2 -a 0 -i 14 -k MAC
r -t 1.623472779 -s 16 -d -1 -p message -e 32 -c 2 -a 0 -i 14 -k MAC
r -t 1.623472968 -s 2 -d -1 -p message -e 32 -c 2 -a 0 -i 14 -k MAC
r -t 1.623473040 -s 17 -d -1 -p message -e 32 -c 2 -a 0 -i 14 -k MAC
r -t 1.623497383 -s 4 -d -1 -p message -e 32 -c 2 -a 0 -i 14 -k RTR
r -t 1.623497497 -s 15 -d -1 -p message -e 32 -c 2 -a 0 -i 14 -k RTR
r -t 1.623497619 -s 5 -d -1 -p message -e 32 -c 2 -a 0 -i 14 -k RTR
r -t 1.623497779 -s 16 -d -1 -p message -e 32 -c 2 -a 0 -i 14 -k RTR
r -t 1.623497968 -s 2 -d -1 -p message -e 32 -c 2 -a 0 -i 14 -k RTR
r -t 1.623498040 -s 17 -d -1 -p message -e 32 -c 2 -a 0 -i 14 -k RTR
+ -t 1.640789853 -s 1 -d -1 -p message -e 32 -c 2 -a 0 -i 15 -k RTR 
- -t 1.640789853 -s 1 -d -1 -p message -e 32 -c 2 -a 0 -i 15 -k RTR
h -t 1.640789853 -s 1 -d -1 -p message -e 32 -c 2 -a 0 -i 15 -k RTR
+ -t 1.641164853 -s 1 -d -1 -p message -e 90 -c 2 -a 0 -i 15 -k MAC 
- -t 1.641164853 -s 1 -d -1 -p message -e 90 -c 2 -a 0 -i 15 -k MAC
h -t 1.641164853 -s 1 -d -1 -p message -e 90 -c 2 -a 0 -i 15 -k MAC
r -t 1.641885634 -s 13 -d -1 -p message -e 32 -c 2 -a 0 -i 15 -k MAC
r -t 1.641885670 -s 9 -d -1 -p message -e 32 -c 2 -a 0 -i 15 -k MAC
r -t 1.641910634 -s 13 -d -1 -p message -e 32 -c 2 -a 0 -i 15 -k RTR
r -t 1.641910670 -s 9 -d -1 -p message -e 32 -c 2 -a 0 -i 15 -k RTR
+ -t 1.678108304 -s 5 -d -1 -p message -e 32 -c 2 -a 0 -i 16 -k RTR 
- -t 1.678108304 -s 5 -d -1 -p message -e 32 -c 2 -a 0 -i 16 -k RTR
h -t 1.678108304 -s 5 -d -1 -p message -e 32 -c 2 -a 0 -i 16 -k RTR
+ -t 1.678763304 -s 5 -d -1 -p message -e 90 -c 2 -a 0 -i 16 -k MAC 
- -t 1.678763304 -s 5 -d -1 -p message -e 90 -c 2 -a 0 -i 16 -k MAC
h -t 1.678763304 -s 5 -d -1 -p message -e 90 -c 2 -a 0 -i 16 -k MAC
r -t 1.679483485 -s 15 -d -1 -p message -e 32 -c 2 -a 0 -i 16 -k MAC
r -t 1.679483574 -s 16 -d -1 -p message -e 32 -c 2 -a 0 -i 16 -k MAC
r -t 1.679483641 -s 4 -d -1 -p message -e 32 -c 2 -a 0 -i 16 -k MAC
r -t 1.679483683 -s 14 -d -1 -p message -e 32 -c 2 -a 0 -i 16 -k MAC
r -t 1.679483805 -s 17 -d -1 -p message -e 32 -c 2 -a 0 -i 16 -k MAC
r -t 1.679483939 -s 10 -d -1 -p message -e 32 -c 2 -a 0 -i 16 -k MAC
r -t 1.679483971 -s 6 -d -1 -p message -e 32 -c 2 -a 0 -i 16 -k MAC
r -t 1.679508485 -s 15 -d -1 -p message -e 32 -c 2 -a 0 -i 16 -k RTR
r -t 1.679508574 -s 16 -d -1 -p message -e 32 -c 2 -a 0 -i 16 -k RTR
r -t 1.679508641 -s 4 -d -1 -p message -e 32 -c 2 -a 0 -i 16 -k RTR
r -t 1.679508683 -s 14 -d -1 -p message -e 32 -c 2 -a 0 -i 16 -k RTR
r -t 1.679508805 -s 17 -d -1 -p message -e 32 -c 2 -a 0 -i 16 -k RTR
r -t 1.679508939 -s 10 -d -1 -p message -e 32 -c 2 -a 0 -i 16 -k RTR
r -t 1.679508971 -s 6 -d -1 -p message -e 32 -c 2 -a 0 -i 16 -k RTR
+ -t 1.722777539 -s 10 -d -1 -p message -e 32 -c 2 -a 0 -i 17 -k RTR 
- -t 1.722777539 -s 10 -d -1 -p message -e 32 -c 2 -a 0 -i 17 -k RTR
h -t 1.722777539 -s 10 -d -1 -p message -e 32 -c 2 -a 0 -i 17 -k RTR
+ -t 1.723292539 -s 10 -d -1 -p message -e 90 -c 2 -a 0 -i 17 -k MAC 
- -t 1.723292539 -s 10 -d -1 -p message -e 90 -c 2 -a 0 -i 17 -k MAC
h -t 1.723292539 -s 10 -d -1 -p message -e 90 -c 2 -a 0 -i 17 -k MAC
r -t 1.724012733 -s 6 -d -1 -p message -e 32 -c 2 -a 0 -i 17 -k MAC
r -t 1.724012824 -s 11 -d -1 -p message -e 32 -c 2 -a 0 -i 17 -k MAC
r -t 1.724012915 -s 17 -d -1 -p message -e 32 -c 2 -a 0 -i 17 -k MAC
r -t 1.724012980 -s 7 -d -1 -p message -e 32 -c 2 -a 0 -i 17 -k MAC
r -t 1.724013057 -s 16 -d -1 -p message -e 32 -c 2 -a 0 -i 17 -k MAC
r -t 1.724013144 -s 12 -d -1 -p message -e 32 -c 2 -a 0 -i 17 -k MAC
r -t 1.724013167 -s 5 -d -1 -p message -e 32 -c 2 -a 0 -i 17 -k MAC
r -t 1.724013286 -s 15 -d -1 -p message -e 32 -c 2 -a 0 -i 17 -k MAC
r -t 1.724037733 -s 6 -d -1 -p message -e 32 -c 2 -a 0 -i 17 -k RTR
r -t 1.724037824 -s 11 -d -1 -p message -e 32 -c 2 -a 0 -i 17 -k RTR
r -t 1.724037915 -s 17 -d -1 -p message -e 32 -c 2 -a 0 -i 17 -k RTR
r -t 1.724037980 -s 7 -d -1 -p message -e 32 -c 2 -a 0 -i 17 -k RTR
r -t 1.724038057 -s 16 -d -1 -p message -e 32 -c 2 -a 0 -i 17 -k RTR
r -t 1.724038144 -s 12 -d -1 -p message -e 32 -c 2 -a 0 -i 17 -k RTR
r -t 1.724038167 -s 5 -d -1 -p message -e 32 -c 2 -a 0 -i 17 -k RTR
r -t 1.724038286 -s 15 -d -1 -p message -e 32 -c 2 -a 0 -i 17 -k RTR
+ -t 3.060000000 -s 10 -d -1 -p tcp -e 40 -c 2 -a 0 -i 18 -k AGT 
- -t 3.060000000 -s 10 -d -1 -p tcp -e 40 -c 2 -a 0 -i 18 -k AGT
h -t 3.060000000 -s 10 -d -1 -p tcp -e 40 -c 2 -a 0 -i 18 -k AGT
+ -t 3.060000000 -s 10 -d 11 -p tcp -e 60 -c 2 -a 0 -i 18 -k RTR 
- -t 3.060000000 -s 10 -d 11 -p tcp -e 60 -c 2 -a 0 -i 18 -k RTR
h -t 3.060000000 -s 10 -d 11 -p tcp -e 60 -c 2 -a 0 -i 18 -k RTR
+ -t 3.060175000 -s 10 -d -1 -p ARP -e 86 -c 2 -a 0 -i 0 -k MAC 
- -t 3.060175000 -s 10 -d -1 -p ARP -e 86 -c 2 -a 0 -i 0 -k MAC
h -t 3.060175000 -s 10 -d -1 -p ARP -e 86 -c 2 -a 0 -i 0 -k MAC
r -t 3.060863285 -s 11 -d -1 -p ARP -e 28 -c 2 -a 0 -i 0 -k MAC
r -t 3.060863344 -s 6 -d -1 -p ARP -e 28 -c 2 -a 0 -i 0 -k MAC
r -t 3.060863349 -s 15 -d -1 -p ARP -e 28 -c 2 -a 0 -i 0 -k MAC
r -t 3.060863413 -s 16 -d -1 -p ARP -e 28 -c 2 -a 0 -i 0 -k MAC
r -t 3.060863422 -s 5 -d -1 -p ARP -e 28 -c 2 -a 0 -i 0 -k MAC
r -t 3.060863471 -s 14 -d -1 -p ARP -e 28 -c 2 -a 0 -i 0 -k MAC
r -t 3.060863598 -s 17 -d -1 -p ARP -e 28 -c 2 -a 0 -i 0 -k MAC
r -t 3.060863605 -s 12 -d -1 -p ARP -e 28 -c 2 -a 0 -i 0 -k MAC
r -t 3.060863651 -s 7 -d -1 -p ARP -e 28 -c 2 -a 0 -i 0 -k MAC
r -t 3.060863741 -s 4 -d -1 -p ARP -e 28 -c 2 -a 0 -i 0 -k MAC
+ -t 3.061138285 -s 11 -d -1 -p RTS -e 44 -c 2 -a 0 -i 0 -k MAC 
- -t 3.061138285 -s 11 -d -1 -p RTS -e 44 -c 2 -a 0 -i 0 -k MAC
h -t 3.061138285 -s 11 -d -1 -p RTS -e 44 -c 2 -a 0 -i 0 -k MAC
r -t 3.061490570 -s 10 -d -1 -p RTS -e 44 -c 2 -a 0 -i 0 -k MAC
+ -t 3.061500570 -s 10 -d -1 -p CTS -e 38 -c 2 -a 0 -i 0 -k MAC 
- -t 3.061500570 -s 10 -d -1 -p CTS -e 38 -c 2 -a 0 -i 0 -k MAC
h -t 3.061500570 -s 10 -d -1 -p CTS -e 38 -c 2 -a 0 -i 0 -k MAC
r -t 3.061804856 -s 11 -d -1 -p CTS -e 38 -c 2 -a 0 -i 0 -k MAC
+ -t 3.061814856 -s 11 -d -1 -p ARP -e 86 -c 2 -a 0 -i 0 -k MAC 
- -t 3.061814856 -s 11 -d -1 -p ARP -e 86 -c 2 -a 0 -i 0 -k MAC
h -t 3.061814856 -s 11 -d -1 -p ARP -e 86 -c 2 -a 0 -i 0 -k MAC
r -t 3.062503141 -s 10 -d -1 -p ARP -e 28 -c 2 -a 0 -i 0 -k MAC
+ -t 3.062513141 -s 10 -d -1 -p ACK -e 38 -c 2 -a 0 -i 0 -k MAC 
- -t 3.062513141 -s 10 -d -1 -p ACK -e 38 -c 2 -a 0 -i 0 -k MAC
h -t 3.062513141 -s 10 -d -1 -p ACK -e 38 -c 2 -a 0 -i 0 -k MAC
r -t 3.062817426 -s 11 -d -1 -p ACK -e 38 -c 2 -a 0 -i 0 -k MAC
+ -t 3.062867141 -s 10 -d -1 -p RTS -e 44 -c 2 -a 0 -i 0 -k MAC 
- -t 3.062867141 -s 10 -d -1 -p RTS -e 44 -c 2 -a 0 -i 0 -k MAC
h -t 3.062867141 -s 10 -d -1 -p RTS -e 44 -c 2 -a 0 -i 0 -k MAC
r -t 3.063219426 -s 11 -d -1 -p RTS -e 44 -c 2 -a 0 -i 0 -k MAC
+ -t 3.063229426 -s 11 -d -1 -p CTS -e 38 -c 2 -a 0 -i 0 -k MAC 
- -t 3.063229426 -s 11 -d -1 -p CTS -e 38 -c 2 -a 0 -i 0 -k MAC
h -t 3.063229426 -s 11 -d -1 -p CTS -e 38 -c 2 -a 0 -i 0 -k MAC
r -t 3.063533711 -s 10 -d -1 -p CTS -e 38 -c 2 -a 0 -i 0 -k MAC
+ -t 3.063543711 -s 10 -d 11 -p tcp -e 118 -c 2 -a 0 -i 18 -k MAC 
- -t 3.063543711 -s 10 -d 11 -p tcp -e 118 -c 2 -a 0 -i 18 -k MAC
h -t 3.063543711 -s 10 -d 11 -p tcp -e 118 -c 2 -a 0 -i 18 -k MAC
r -t 3.064487997 -s 11 -d 11 -p tcp -e 60 -c 2 -a 0 -i 18 -k MAC
+ -t 3.064497997 -s 11 -d -1 -p ACK -e 38 -c 2 -a 0 -i 0 -k MAC 
- -t 3.064497997 -s 11 -d -1 -p ACK -e 38 -c 2 -a 0 -i 0 -k MAC
h -t 3.064497997 -s 11 -d -1 -p ACK -e 38 -c 2 -a 0 -i 0 -k MAC
r -t 3.064512997 -s 11 -d 11 -p tcp -e 60 -c 2 -a 0 -i 18 -k AGT
+ -t 3.064512997 -s 11 -d -1 -p ack -e 40 -c 2 -a 0 -i 19 -k AGT 
- -t 3.064512997 -s 11 -d -1 -p ack -e 40 -c 2 -a 0 -i 19 -k AGT
h -t 3.064512997 -s 11 -d -1 -p ack -e 40 -c 2 -a 0 -i 19 -k AGT
+ -t 3.064512997 -s 11 -d 10 -p ack -e 60 -c 2 -a 0 -i 19 -k RTR 
- -t 3.064512997 -s 11 -d 10 -p ack -e 60 -c 2 -a 0 -i 19 -k RTR
h -t 3.064512997 -s 11 -d 10 -p ack -e 60 -c 2 -a 0 -i 19 -k RTR
r -t 3.064802282 -s 10 -d -1 -p ACK -e 38 -c 2 -a 0 -i 0 -k MAC
+ -t 3.064991997 -s 11 -d -1 -p RTS -e 44 -c 2 -a 0 -i 0 -k MAC 
- -t 3.064991997 -s 11 -d -1 -p RTS -e 44 -c 2 -a 0 -i 0 -k MAC
h -t 3.064991997 -s 11 -d -1 -p RTS -e 44 -c 2 -a 0 -i 0 -k MAC
r -t 3.065344282 -s 10 -d -1 -p RTS -e 44 -c 2 -a 0 -i 0 -k MAC
+ -t 3.065354282 -s 10 -d -1 -p CTS -e 38 -c 2 -a 0 -i 0 -k MAC 
- -t 3.065354282 -s 10 -d -1 -p CTS -e 38 -c 2 -a 0 -i 0 -k MAC
h -t 3.065354282 -s 10 -d -1 -p CTS -e 38 -c 2 -a 0 -i 0 -k MAC
r -t 3.065658567 -s 11 -d -1 -p CTS -e 38 -c 2 -a 0 -i 0 -k MAC
+ -t 3.065668567 -s 11 -d 10 -p ack -e 118 -c 2 -a 0 -i 19 -k MAC 
- -t 3.065668567 -s 11 -d 10 -p ack -e 118 -c 2 -a 0 -i 19 -k MAC
h -t 3.065668567 -s 11 -d 10 -p ack -e 118 -c 2 -a 0 -i 19 -k MAC
r -t 3.066612852 -s 10 -d 10 -p ack -e 60 -c 2 -a 0 -i 19 -k MAC
+ -t 3.066622852 -s 10 -d -1 -p ACK -e 38 -c 2 -a 0 -i 0 -k MAC 
- -t 3.066622852 -s 10 -d -1 -p ACK -e 38 -c 2 -a 0 -i 0 -k MAC
h -t 3.066622852 -s 10 -d -1 -p ACK -e 38 -c 2 -a 0 -i 0 -k MAC
r -t 3.066637852 -s 10 -d 10 -p ack -e 60 -c 2 -a 0 -i 19 -k AGT
+ -t 3.066637852 -s 10 -d -1 -p tcp -e 1040 -c 2 -a 0 -i 20 -k AGT 
- -t 3.066637852 -s 10 -d -1 -p tcp -e 1040 -c 2 -a 0 -i 20 -k AGT
h -t 3.066637852 -s 10 -d -1 -p tcp -e 1040 -c 2 -a 0 -i 20 -k AGT
+ -t 3.066637852 -s 10 -d 11 -p tcp -e 1060 -c 2 -a 0 -i 20 -k RTR 
- -t 3.066637852 -s 10 -d 11 -p tcp -e 1060 -c 2 -a 0 -i 20 -k RTR
h -t 3.066637852 -s 10 -d 11 -p tcp -e 1060 -c 2 -a 0 -i 20 -k RTR
+ -t 3.066637852 -s 10 -d -1 -p tcp -e 1040 -c 2 -a 0 -i 21 -k AGT 
- -t 3.066637852 -s 10 -d -1 -p tcp -e 1040 -c 2 -a 0 -i 21 -k AGT
h -t 3.066637852 -s 10 -d -1 -p tcp -e 1040 -c 2 -a 0 -i 21 -k AGT
+ -t 3.066637852 -s 10 -d 11 -p tcp -e 1060 -c 2 -a 0 -i 21 -k RTR 
- -t 3.066637852 -s 10 -d 11 -p tcp -e 1060 -c 2 -a 0 -i 21 -k RTR
h -t 3.066637852 -s 10 -d 11 -p tcp -e 1060 -c 2 -a 0 -i 21 -k RTR
r -t 3.066927137 -s 11 -d -1 -p ACK -e 38 -c 2 -a 0 -i 0 -k MAC
+ -t 3.067196852 -s 10 -d -1 -p RTS -e 44 -c 2 -a 0 -i 0 -k MAC 
- -t 3.067196852 -s 10 -d -1 -p RTS -e 44 -c 2 -a 0 -i 0 -k MAC
h -t 3.067196852 -s 10 -d -1 -p RTS -e 44 -c 2 -a 0 -i 0 -k MAC
r -t 3.067549137 -s 11 -d -1 -p RTS -e 44 -c 2 -a 0 -i 0 -k MAC
+ -t 3.067559137 -s 11 -d -1 -p CTS -e 38 -c 2 -a 0 -i 0 -k MAC 
- -t 3.067559137 -s 11 -d -1 -p CTS -e 38 -c 2 -a 0 -i 0 -k MAC
h -t 3.067559137 -s 11 -d -1 -p CTS -e 38 -c 2 -a 0 -i 0 -k MAC
r -t 3.067863423 -s 10 -d -1 -p CTS -e 38 -c 2 -a 0 -i 0 -k MAC
+ -t 3.067873423 -s 10 -d 11 -p tcp -e 1118 -c 2 -a 0 -i 20 -k MAC 
- -t 3.067873423 -s 10 -d 11 -p tcp -e 1118 -c 2 -a 0 -i 20 -k MAC
h -t 3.067873423 -s 10 -d 11 -p tcp -e 1118 -c 2 -a 0 -i 20 -k MAC
r -t 3.076817708 -s 11 -d 11 -p tcp -e 1060 -c 2 -a 0 -i 20 -k MAC
+ -t 3.076827708 -s 11 -d -1 -p ACK -e 38 -c 2 -a 0 -i 0 -k MAC 
- -t 3.076827708 -s 11 -d -1 -p ACK -e 38 -c 2 -a 0 -i 0 -k MAC
h -t 3.076827708 -s 11 -d -1 -p ACK -e 38 -c 2 -a 0 -i 0 -k MAC
r -t 3.076842708 -s 11 -d 11 -p tcp -e 1060 -c 2 -a 0 -i 20 -k AGT