s 0.090775603 _7_ RTR  --- 0 message 32 [0 0 0 0] ------- [7:255 -1:255 32 0] 
s 0.091030603 _7_ MAC  --- 0 message 90 [0 ffffffff 7 800] ------- [7:255 -1:255 32 0] 
r 0.091750811 _11_ MAC  --- 0 message 32 [0 ffffffff 7 800] ------- [7:255 -1:255 32 0] 
r 0.091750859 _10_ MAC  --- 0 message 32 [0 ffffffff 7 800] ------- [7:255 -1:255 32 0] 
r 0.091750937 _6_ MAC  --- 0 message 32 [0 ffffffff 7 800] ------- [7:255 -1:255 32 0] 
r 0.091751063 _12_ MAC  --- 0 message 32 [0 ffffffff 7 800] ------- [7:255 -1:255 32 0] 
r 0.091751240 _8_ MAC  --- 0 message 32 [0 ffffffff 7 800] ------- [7:255 -1:255 32 0] 
r 0.091751371 _13_ MAC  --- 0 message 32 [0 ffffffff 7 800] ------- [7:255 -1:255 32 0] 
r 0.091775811 _11_ RTR  --- 0 message 32 [0 ffffffff 7 800] ------- [7:255 -1:255 32 0] 
r 0.091775859 _10_ RTR  --- 0 message 32 [0 ffffffff 7 800] ------- [7:255 -1:255 32 0] 
r 0.091775937 _6_ RTR  --- 0 message 32 [0 ffffffff 7 800] ------- [7:255 -1:255 32 0] 
r 0.091776063 _12_ RTR  --- 0 message 32 [0 ffffffff 7 800] ------- [7:255 -1:255 32 0] 
r 0.091776240 _8_ RTR  --- 0 message 32 [0 ffffffff 7 800] ------- [7:255 -1:255 32 0] 
r 0.091776371 _13_ RTR  --- 0 message 32 [0 ffffffff 7 800] ------- [7:255 -1:255 32 0] 
s 0.196675961 _13_ RTR  --- 1 message 32 [0 0 0 0] ------- [13:255 -1:255 32 0] 
s 0.197110961 _13_ MAC  --- 1 message 90 [0 ffffffff d 800] ------- [13:255 -1:255 32 0] 
r 0.197831171 _8_ MAC  --- 1 message 32 [0 ffffffff d 800] ------- [13:255 -1:255 32 0] 
r 0.197831206 _9_ MAC  --- 1 message 32 [0 ffffffff d 800] ------- [13:255 -1:255 32 0] 
r 0.197831284 _12_ MAC  --- 1 message 32 [0 ffffffff d 800] ------- [13:255 -1:255 32 0] 
r 0.197831604 _11_ MAC  --- 1 message 32 [0 ffffffff d 800] ------- [13:255 -1:255 32 0] 
r 0.197831645 _1_ MAC  --- 1 message 32 [0 ffffffff d 800] ------- [13:255 -1:255 32 0] 
r 0.197831729 _7_ MAC  --- 1 message 32 [0 ffffffff d 800] ------- [13:255 -1:255 32 0] 
r 0.197856171 _8_ RTR  --- 1 message 32 [0 ffffffff d 800] ------- [13:255 -1:255 32 0] 
r 0.197856206 _9_ RTR  --- 1 message 32 [0 ffffffff d 800] ------- [13:255 -1:255 32 0] 
r 0.197856284 _12_ RTR  --- 1 message 32 [0 ffffffff d 800] ------- [13:255 -1:255 32 0] 
r 0.197856604 _11_ RTR  --- 1 message 32 [0 ffffffff d 800] ------- [13:255 -1:255 32 0] 
r 0.197856645 _1_ RTR  --- 1 message 32 [0 ffffffff d 800] ------- [13:255 -1:255 32 0] 
r 0.197856729 _7_ RTR  --- 1 message 32 [0 ffffffff d 800] ------- [13:255 -1:255 32 0] 
s 0.234389987 _9_ RTR  --- 2 message 32 [0 0 0 0] ------- [9:255 -1:255 32 0] 
s 0.234604987 _9_ MAC  --- 2 message 90 [0 ffffffff 9 800] ------- [9:255 -1:255 32 0] 
r 0.235325232 _13_ MAC  --- 2 message 32 [0 ffffffff 9 800] ------- [9:255 -1:255 32 0] 
r 0.235325267 _8_ MAC  --- 2 message 32 [0 ffffffff 9 800] ------- [9:255 -1:255 32 0] 
r 0.235325510 _12_ MAC  --- 2 message 32 [0 ffffffff 9 800] ------- [9:255 -1:255 32 0] 
r 0.235325804 _1_ MAC  --- 2 message 32 [0 ffffffff 9 800] ------- [9:255 -1:255 32 0] 
r 0.235325818 _11_ MAC  --- 2 message 32 [0 ffffffff 9 800] ------- [9:255 -1:255 32 0] 
r 0.235350232 _13_ RTR  --- 2 message 32 [0 ffffffff 9 800] ------- [9:255 -1:255 32 0] 
r 0.235350267 _8_ RTR  --- 2 message 32 [0 ffffffff 9 800] ------- [9:255 -1:255 32 0] 
r 0.235350510 _12_ RTR  --- 2 message 32 [0 ffffffff 9 800] ------- [9:255 -1:255 32 0] 
r 0.235350804 _1_ RTR  --- 2 message 32 [0 ffffffff 9 800] ------- [9:255 -1:255 32 0] 
r 0.235350818 _11_ RTR  --- 2 message 32 [0 ffffffff 9 800] ------- [9:255 -1:255 32 0] 
s 0.329382798 _6_ RTR  --- 3 message 32 [0 0 0 0] ------- [6:255 -1:255 32 0] 
s 0.329557798 _6_ MAC  --- 3 message 90 [0 ffffffff 6 800] ------- [6:255 -1:255 32 0] 
r 0.330278033 _10_ MAC  --- 3 message 32 [0 ffffffff 6 800] ------- [6:255 -1:255 32 0] 
r 0.330278131 _7_ MAC  --- 3 message 32 [0 ffffffff 6 800] ------- [6:255 -1:255 32 0] 
r 0.330278270 _11_ MAC  --- 3 message 32 [0 ffffffff 6 800] ------- [6:255 -1:255 32 0] 
r 0.330278386 _17_ MAC  --- 3 message 32 [0 ffffffff 6 800] ------- [6:255 -1:255 32 0] 
r 0.330278465 _5_ MAC  --- 3 message 32 [0 ffffffff 6 800] ------- [6:255 -1:255 32 0] 
r 0.330278576 _12_ MAC  --- 3 message 32 [0 ffffffff 6 800] ------- [6:255 -1:255 32 0] 
r 0.330303033 _10_ RTR  --- 3 message 32 [0 ffffffff 6 800] ------- [6:255 -1:255 32 0] 
r 0.330303131 _7_ RTR  --- 3 message 32 [0 ffffffff 6 800] ------- [6:255 -1:255 32 0] 
r 0.330303270 _11_ RTR  --- 3 message 32 [0 ffffffff 6 800] ------- [6:255 -1:255 32 0] 
r 0.330303386 _17_ RTR  --- 3 message 32 [0 ffffffff 6 800] ------- [6:255 -1:255 32 0] 
r 0.330303465 _5_ RTR  --- 3 message 32 [0 ffffffff 6 800] ------- [6:255 -1:255 32 0] 
r 0.330303576 _12_ RTR  --- 3 message 32 [0 ffffffff 6 800] ------- [6:255 -1:255 32 0] 
s 0.359073157 _12_ RTR  --- 4 message 32 [0 0 0 0] ------- [12:255 -1:255 32 0] 
s 0.359728157 _12_ MAC  --- 4 message 90 [0 ffffffff c 800] ------- [12:255 -1:255 32 0] 
r 0.360448436 _8_ MAC  --- 4 message 32 [0 ffffffff c 800] ------- [12:255 -1:255 32 0] 
r 0.360448477 _11_ MAC  --- 4 message 32 [0 ffffffff c 800] ------- [12:255 -1:255 32 0] 
r 0.360448480 _13_ MAC  --- 4 message 32 [0 ffffffff c 800] ------- [12:255 -1:255 32 0] 
r 0.360448617 _7_ MAC  --- 4 message 32 [0 ffffffff c 800] ------- [12:255 -1:255 32 0] 
r 0.360448681 _9_ MAC  --- 4 message 32 [0 ffffffff c 800] ------- [12:255 -1:255 32 0] 
r 0.360448762 _10_ MAC  --- 4 message 32 [0 ffffffff c 800] ------- [12:255 -1:255 32 0] 
r 0.360448935 _6_ MAC  --- 4 message 32 [0 ffffffff c 800] ------- [12:255 -1:255 32 0] 
r 0.360473436 _8_ RTR  --- 4 message 32 [0 ffffffff c 800] ------- [12:255 -1:255 32 0] 
r 0.360473477 _11_ RTR  --- 4 message 32 [0 ffffffff c 800] ------- [12:255 -1:255 32 0] 
r 0.360473480 _13_ RTR  --- 4 message 32 [0 ffffffff c 800] ------- [12:255 -1:255 32 0] 
r 0.360473617 _7_ RTR  --- 4 message 32 [0 ffffffff c 800] ------- [12:255 -1:255 32 0] 
r 0.360473681 _9_ RTR  --- 4 message 32 [0 ffffffff c 800] ------- [12:255 -1:255 32 0] 
r 0.360473762 _10_ RTR  --- 4 message 32 [0 ffffffff c 800] ------- [12:255 -1:255 32 0] 
r 0.360473935 _6_ RTR  --- 4 message 32 [0 ffffffff c 800] ------- [12:255 -1:255 32 0] 
M 0.40000 10 (590.18, 354.41, 0.00), (588.11, 563.71), 50.00
M 0.40000 11 (590.18, 268.84, 0.00), (588.11, 457.42), 50.00
M 0.40000 12 (590.18, 172.99, 0.00), (588.11, 344.99), 50.00
M 0.40000 13 (590.18, 76.13, 0.00), (588.11, 239.85), 50.00
M 0.40000 14 (701.60, 810.83, 0.00), (689.17, 541.43), 85.00
M 0.40000 15 (701.60, 729.49, 0.00), (689.17, 422.78), 85.00
M 0.40000 16 (701.60, 645.06, 0.00), (689.17, 346.64), 85.00
M 0.40000 17 (701.60, 566.79, 0.00), (689.17, 260.08), 85.00
s 0.469311587 _2_ RTR  --- 5 message 32 [0 0 0 0] ------- [2:255 -1:255 32 0] 
s 0.469886587 _2_ MAC  --- 5 message 90 [0 ffffffff 2 800] ------- [2:255 -1:255 32 0] 
r 0.470607246 _14_ MAC  --- 5 message 32 [0 ffffffff 2 800] ------- [2:255 -1:255 32 0] 
r 0.470607293 _15_ MAC  --- 5 message 32 [0 ffffffff 2 800] ------- [2:255 -1:255 32 0] 
r 0.470632246 _14_ RTR  --- 5 message 32 [0 ffffffff 2 800] ------- [2:255 -1:255 32 0] 
r 0.470632293 _15_ RTR  --- 5 message 32 [0 ffffffff 2 800] ------- [2:255 -1:255 32 0] 
s 0.522862137 _16_ RTR  --- 6 message 32 [0 0 0 0] ------- [16:255 -1:255 32 0] 
s 0.523417137 _16_ MAC  --- 6 message 90 [0 ffffffff 10 800] ------- [16:255 -1:255 32 0] 
r 0.524137351 _5_ MAC  --- 6 message 32 [0 ffffffff 10 800] ------- [16:255 -1:255 32 0] 
r 0.524137397 _17_ MAC  --- 6 message 32 [0 ffffffff 10 800] ------- [16:255 -1:255 32 0] 
r 0.524137416 _4_ MAC  --- 6 message 32 [0 ffffffff 10 800] ------- [16:255 -1:255 32 0] 
r 0.524137418 _15_ MAC  --- 6 message 32 [0 ffffffff 10 800] ------- [16:255 -1:255 32 0] 
r 0.524137689 _14_ MAC  --- 6 message 32 [0 ffffffff 10 800] ------- [16:255 -1:255 32 0] 
r 0.524137941 _6_ MAC  --- 6 message 32 [0 ffffffff 10 800] ------- [16:255 -1:255 32 0] 
r 0.524162351 _5_ RTR  --- 6 message 32 [0 ffffffff 10 800] ------- [16:255 -1:255 32 0] 
r 0.524162397 _17_ RTR  --- 6 message 32 [0 ffffffff 10 800] ------- [16:255 -1:255 32 0] 
r 0.524162416 _4_ RTR  --- 6 message 32 [0 ffffffff 10 800] ------- [16:255 -1:255 32 0] 
r 0.524162418 _15_ RTR  --- 6 message 32 [0 ffffffff 10 800] ------- [16:255 -1:255 32 0] 
r 0.524162689 _14_ RTR  --- 6 message 32 [0 ffffffff 10 800] ------- [16:255 -1:255 32 0] 
r 0.524162941 _6_ RTR  --- 6 message 32 [0 ffffffff 10 800] ------- [16:255 -1:255 32 0] 
s 0.626924672 _4_ RTR  --- 7 message 32 [0 0 0 0] ------- [4:255 -1:255 32 0] 
s 0.627079672 _4_ MAC  --- 7 message 90 [0 ffffffff 4 800] ------- [4:255 -1:255 32 0] 
r 0.627799845 _15_ MAC  --- 7 message 32 [0 ffffffff 4 800] ------- [4:255 -1:255 32 0] 
r 0.627799975 _16_ MAC  --- 7 message 32 [0 ffffffff 4 800] ------- [4:255 -1:255 32 0] 
r 0.627800009 _5_ MAC  --- 7 message 32 [0 ffffffff 4 800] ------- [4:255 -1:255 32 0] 
r 0.627800018 _14_ MAC  --- 7 message 32 [0 ffffffff 4 800] ------- [4:255 -1:255 32 0] 
r 0.627800211 _17_ MAC  --- 7 message 32 [0 ffffffff 4 800] ------- [4:255 -1:255 32 0] 
r 0.627824845 _15_ RTR  --- 7 message 32 [0 ffffffff 4 800] ------- [4:255 -1:255 32 0] 
r 0.627824975 _16_ RTR  --- 7 message 32 [0 ffffffff 4 800] ------- [4:255 -1:255 32 0] 
r 0.627825009 _5_ RTR  --- 7 message 32 [0 ffffffff 4 800] ------- [4:255 -1:255 32 0] 
r 0.627825018 _14_ RTR  --- 7 message 32 [0 ffffffff 4 800] ------- [4:255 -1:255 32 0] 
r 0.627825211 _17_ RTR  --- 7 message 32 [0 ffffffff 4 800] ------- [4:255 -1:255 32 0] 
s 0.631471940 _0_ RTR  --- 8 message 32 [0 0 0 0] ------- [0:255 -1:255 32 0] 
s 0.631546940 _0_ MAC  --- 8 message 90 [0 ffffffff 0 800] ------- [0:255 -1:255 32 0] 
s 0.706950213 _15_ RTR  --- 9 message 32 [0 0 0 0] ------- [15:255 -1:255 32 0] 
s 0.707045213 _15_ MAC  --- 9 message 90 [0 ffffffff f 800] ------- [15:255 -1:255 32 0] 
r 0.707765382 _4_ MAC  --- 9 message 32 [0 ffffffff f 800] ------- [15:255 -1:255 32 0] 
r 0.707765484 _14_ MAC  --- 9 message 32 [0 ffffffff f 800] ------- [15:255 -1:255 32 0] 
r 0.707765494 _16_ MAC  --- 9 message 32 [0 ffffffff f 800] ------- [15:255 -1:255 32 0] 
r 0.707765601 _5_ MAC  --- 9 message 32 [0 ffffffff f 800] ------- [15:255 -1:255 32 0] 
r 0.707765755 _17_ MAC  --- 9 message 32 [0 ffffffff f 800] ------- [15:255 -1:255 32 0] 
r 0.707765949 _2_ MAC  --- 9 message 32 [0 ffffffff f 800] ------- [15:255 -1:255 32 0] 
r 0.707790382 _4_ RTR  --- 9 message 32 [0 ffffffff f 800] ------- [15:255 -1:255 32 0] 
r 0.707790484 _14_ RTR  --- 9 message 32 [0 ffffffff f 800] ------- [15:255 -1:255 32 0] 
r 0.707790494 _16_ RTR  --- 9 message 32 [0 ffffffff f 800] ------- [15:255 -1:255 32 0] 
r 0.707790601 _5_ RTR  --- 9 message 32 [0 ffffffff f 800] ------- [15:255 -1:255 32 0] 
r 0.707790755 _17_ RTR  --- 9 message 32 [0 ffffffff f 800] ------- [15:255 -1:255 32 0] 
r 0.707790949 _2_ RTR  --- 9 message 32 [0 ffffffff f 800] ------- [15:255 -1:255 32 0] 
s 0.819158631 _17_ RTR  --- 10 message 32 [0 0 0 0] ------- [17:255 -1:255 32 0] 
s 0.819533631 _17_ MAC  --- 10 message 90 [0 ffffffff 11 800] ------- [17:255 -1:255 32 0] 
r 0.820253892 _16_ MAC  --- 10 message 32 [0 ffffffff 11 800] ------- [17:255 -1:255 32 0] 
r 0.820253921 _5_ MAC  --- 10 message 32 [0 ffffffff 11 800] ------- [17:255 -1:255 32 0] 
r 0.820254106 _6_ MAC  --- 10 message 32 [0 ffffffff 11 800] ------- [17:255 -1:255 32 0] 
r 0.820254173 _15_ MAC  --- 10 message 32 [0 ffffffff 11 800] ------- [17:255 -1:255 32 0] 
r 0.820254221 _4_ MAC  --- 10 message 32 [0 ffffffff 11 800] ------- [17:255 -1:255 32 0] 
r 0.820254267 _10_ MAC  --- 10 message 32 [0 ffffffff 11 800] ------- [17:255 -1:255 32 0] 
r 0.820254424 _7_ MAC  --- 10 message 32 [0 ffffffff 11 800] ------- [17:255 -1:255 32 0] 
r 0.820254444 _14_ MAC  --- 10 message 32 [0 ffffffff 11 800] ------- [17:255 -1:255 32 0] 
r 0.820278892 _16_ RTR  --- 10 message 32 [0 ffffffff 11 800] ------- [17:255 -1:255 32 0] 
r 0.820278921 _5_ RTR  --- 10 message 32 [0 ffffffff 11 800] ------- [17:255 -1:255 32 0] 
r 0.820279106 _6_ RTR  --- 10 message 32 [0 ffffffff 11 800] ------- [17:255 -1:255 32 0] 
r 0.820279173 _15_ RTR  --- 10 message 32 [0 ffffffff 11 800] ------- [17:255 -1:255 32 0] 
r 0.820279221 _4_ RTR  --- 10 message 32 [0 ffffffff 11 800] ------- [17:255 -1:255 32 0] 
r 0.820279267 _10_ RTR  --- 10 message 32 [0 ffffffff 11 800] ------- [17:255 -1:255 32 0] 
r 0.820279424 _7_ RTR  --- 10 message 32 [0 ffffffff 11 800] ------- [17:255 -1:255 32 0] 
r 0.820279444 _14_ RTR  --- 10 message 32 [0 ffffffff 11 800] ------- [17:255 -1:255 32 0] 
s 0.847814807 _11_ RTR  --- 11 message 32 [0 0 0 0] ------- [11:255 -1:255 32 0] 
s 0.848089807 _11_ MAC  --- 11 message 90 [0 ffffffff b 800] ------- [11:255 -1:255 32 0] 
r 0.848809989 _7_ MAC  --- 11 message 32 [0 ffffffff b 800] ------- [11:255 -1:255 32 0] 
r 0.848810092 _10_ MAC  --- 11 message 32 [0 ffffffff b 800] ------- [11:255 -1:255 32 0] 
r 0.848810126 _12_ MAC  --- 11 message 32 [0 ffffffff b 800] ------- [11:255 -1:255 32 0] 
r 0.848810211 _6_ MAC  --- 11 message 32 [0 ffffffff b 800] ------- [11:255 -1:255 32 0] 
r 0.848810440 _8_ MAC  --- 11 message 32 [0 ffffffff b 800] ------- [11:255 -1:255 32 0] 
r 0.848810449 _13_ MAC  --- 11 message 32 [0 ffffffff b 800] ------- [11:255 -1:255 32 0] 
r 0.848834989 _7_ RTR  --- 11 message 32 [0 ffffffff b 800] ------- [11:255 -1:255 32 0] 
r 0.848835092 _10_ RTR  --- 11 message 32 [0 ffffffff b 800] ------- [11:255 -1:255 32 0] 
r 0.848835126 _12_ RTR  --- 11 message 32 [0 ffffffff b 800] ------- [11:255 -1:255 32 0] 
r 0.848835211 _6_ RTR  --- 11 message 32 [0 ffffffff b 800] ------- [11:255 -1:255 32 0] 
r 0.848835440 _8_ RTR  --- 11 message 32 [0 ffffffff b 800] ------- [11:255 -1:255 32 0] 
r 0.848835449 _13_ RTR  --- 11 message 32 [0 ffffffff b 800] ------- [11:255 -1:255 32 0] 
s 1.281942487 _3_ RTR  --- 12 message 32 [0 0 0 0] ------- [3:255 -1:255 32 0] 
s 1.282357487 _3_ MAC  --- 12 message 90 [0 ffffffff 3 800] ------- [3:255 -1:255 32 0] 
s 1.288279320 _8_ RTR  --- 13 message 32 [0 0 0 0] ------- [8:255 -1:255 32 0] 
s 1.288474320 _8_ MAC  --- 13 message 90 [0 ffffffff 8 800] ------- [8:255 -1:255 32 0] 
r 1.289194505 _13_ MAC  --- 13 message 32 [0 ffffffff 8 800] ------- [8:255 -1:255 32 0] 
r 1.289194600 _9_ MAC  --- 13 message 32 [0 ffffffff 8 800] ------- [8:255 -1:255 32 0] 
r 1.289194724 _12_ MAC  --- 13 message 32 [0 ffffffff 8 800] ------- [8:255 -1:255 32 0] 
r 1.289194956 _7_ MAC  --- 13 message 32 [0 ffffffff 8 800] ------- [8:255 -1:255 32 0] 
r 1.289195024 _11_ MAC  --- 13 message 32 [0 ffffffff 8 800] ------- [8:255 -1:255 32 0] 
r 1.289219505 _13_ RTR  --- 13 message 32 [0 ffffffff 8 800] ------- [8:255 -1:255 32 0] 
r 1.289219600 _9_ RTR  --- 13 message 32 [0 ffffffff 8 800] ------- [8:255 -1:255 32 0] 
r 1.289219724 _12_ RTR  --- 13 message 32 [0 ffffffff 8 800] ------- [8:255 -1:255 32 0] 
r 1.289219956 _7_ RTR  --- 13 message 32 [0 ffffffff 8 800] ------- [8:255 -1:255 32 0] 
r 1.289220024 _11_ RTR  --- 13 message 32 [0 ffffffff 8 800] ------- [8:255 -1:255 32 0] 
s 1.622077226 _14_ RTR  --- 14 message 32 [0 0 0 0] ------- [14:255 -1:255 32 0] 
s 1.622752226 _14_ MAC  --- 14 message 90 [0 ffffffff e 800] ------- [14:255 -1:255 32 0] 
r 1.623472383 _4_ MAC  --- 14 message 32 [0 ffffffff e 800] ------- [14:255 -1:255 32 0] 
r 1.623472497 _15_ MAC  --- 14 message 32 [0 ffffffff e 800] ------- [14:255 -1:255 32 0] 
r 1.623472619 _5_ MAC  --- 14 message 32 [0 ffffffff e 800] ------- [14:255 -1:255 32 0] 
r 1.623472779 _16_ MAC  --- 14 message 32 [0 ffffffff e 800] ------- [14:255 -1:255 32 0] 
r 1.623472968 _2_ MAC  --- 14 message 32 [0 ffffffff e 800] ------- [14:255 -1:255 32 0] 
r 1.623473040 _17_ MAC  --- 14 message 32 [0 ffffffff e 800] ------- [14:255 -1:255 32 0] 
r 1.623497383 _4_ RTR  --- 14 message 32 [0 ffffffff e 800] ------- [14:255 -1:255 32 0] 
r 1.623497497 _15_ RTR  --- 14 message 32 [0 ffffffff e 800] ------- [14:255 -1:255 32 0] 
r 1.623497619 _5_ RTR  --- 14 message 32 [0 ffffffff e 800] ------- [14:255 -1:255 32 0] 
r 1.623497779 _16_ RTR  --- 14 message 32 [0 ffffffff e 800] ------- [14:255 -1:255 32 0] 
r 1.623497968 _2_ RTR  --- 14 message 32 [0 ffffffff e 800] ------- [14:255 -1:255 32 0] 
r 1.623498040 _17_ RTR  --- 14 message 32 [0 ffffffff e 800] ------- [14:255 -1:255 32 0] 
s 1.640789853 _1_ RTR  --- 15 message 32 [0 0 0 0] ------- [1:255 -1:255 32 0] 
s 1.641164853 _1_ MAC  --- 15 message 90 [0 ffffffff 1 800] ------- [1:255 -1:255 32 0] 
r 1.641885634 _13_ MAC  --- 15 message 32 [0 ffffffff 1 800] ------- [1:255 -1:255 32 0] 
r 1.641885670 _9_ MAC  --- 15 message 32 [0 ffffffff 1 800] ------- [1:255 -1:255 32 0] 
r 1.641910634 _13_ RTR  --- 15 message 32 [0 ffffffff 1 800] ------- [1:255 -1:255 32 0] 
r 1.641910670 _9_ RTR  --- 15 message 32 [0 ffffffff 1 800] ------- [1:255 -1:255 32 0] 
s 1.678108304 _5_ RTR  --- 16 message 32 [0 0 0 0] ------- [5:255 -1:255 32 0] 
s 1.678763304 _5_ MAC  --- 16 message 90 [0 ffffffff 5 800] ------- [5:255 -1:255 32 0] 
r 1.679483485 _15_ MAC  --- 16 message 32 [0 ffffffff 5 800] ------- [5:255 -1:255 32 0] 
r 1.679483574 _16_ MAC  --- 16 message 32 [0 ffffffff 5 800] ------- [5:255 -1:255 32 0] 
r 1.679483641 _4_ MAC  --- 16 message 32 [0 ffffffff 5 800] ------- [5:255 -1:255 32 0] 
r 1.679483683 _14_ MAC  --- 16 message 32 [0 ffffffff 5 800] ------- [5:255 -1:255 32 0] 
r 1.679483805 _17_ MAC  --- 16 message 32 [0 ffffffff 5 800] ------- [5:255 -1:255 32 0] 
r 1.679483939 _10_ MAC  --- 16 message 32 [0 ffffffff 5 800] ------- [5:255 -1:255 32 0] 
r 1.679483971 _6_ MAC  --- 16 message 32 [0 ffffffff 5 800] ------- [5:255 -1:255 32 0] 
r 1.679508485 _15_ RTR  --- 16 message 32 [0 ffffffff 5 800] ------- [5:255 -1:255 32 0] 
r 1.679508574 _16_ RTR  --- 16 message 32 [0 ffffffff 5 800] ------- [5:255 -1:255 32 0] 
r 1.679508641 _4_ RTR  --- 16 message 32 [0 ffffffff 5 800] ------- [5:255 -1:255 32 0] 
r 1.679508683 _14_ RTR  --- 16 message 32 [0 ffffffff 5 800] ------- [5:255 -1:255 32 0] 
r 1.679508805 _17_ RTR  --- 16 message 32 [0 ffffffff 5 800] ------- [5:255 -1:255 32 0] 
r 1.679508939 _10_ RTR  --- 16 message 32 [0 ffffffff 5 800] ------- [5:255 -1:255 32 0] 
r 1.679508971 _6_ RTR  --- 16 message 32 [0 ffffffff 5 800] ------- [5:255 -1:255 32 0] 
s 1.722777539 _10_ RTR  --- 17 message 32 [0 0 0 0] ------- [10:255 -1:255 32 0] 
s 1.723292539 _10_ MAC  --- 17 message 90 [0 ffffffff a 800] ------- [10:255 -1:255 32 0] 
r 1.724012733 _6_ MAC  --- 17 message 32 [0 ffffffff a 800] ------- [10:255 -1:255 32 0] 
r 1.724012824 _11_ MAC  --- 17 message 32 [0 ffffffff a 800] ------- [10:255 -1:255 32 0] 
r 1.724012915 _17_ MAC  --- 17 message 32 [0 ffffffff a 800] ------- [10:255 -1:255 32 0] 
r 1.724012980 _7_ MAC  --- 17 message 32 [0 ffffffff a 800] ------- [10:255 -1:255 32 0] 
r 1.724013057 _16_ MAC  --- 17 message 32 [0 ffffffff a 800] ------- [10:255 -1:255 32 0] 
r 1.724013144 _12_ MAC  --- 17 message 32 [0 ffffffff a 800] ------- [10:255 -1:255 32 0] 
r 1.724013167 _5_ MAC  --- 17 message 32 [0 ffffffff a 800] ------- [10:255 -1:255 32 0] 
r 1.724013286 _15_ MAC  --- 17 message 32 [0 ffffffff a 800] ------- [10:255 -1:255 32 0] 
r 1.724037733 _6_ RTR  --- 17 message 32 [0 ffffffff a 800] ------- [10:255 -1:255 32 0] 
r 1.724037824 _11_ RTR  --- 17 message 32 [0 ffffffff a 800] ------- [10:255 -1:255 32 0] 
r 1.724037915 _17_ RTR  --- 17 message 32 [0 ffffffff a 800] ------- [10:255 -1:255 32 0] 
r 1.724037980 _7_ RTR  --- 17 message 32 [0 ffffffff a 800] ------- [10:255 -1:255 32 0] 
r 1.724038057 _16_ RTR  --- 17 message 32 [0 ffffffff a 800] ------- [10:255 -1:255 32 0] 
r 1.724038144 _12_ RTR  --- 17 message 32 [0 ffffffff a 800] ------- [10:255 -1:255 32 0] 
r 1.724038167 _5_ RTR  --- 17 message 32 [0 ffffffff a 800] ------- [10:255 -1:255 32 0] 
r 1.724038286 _15_ RTR  --- 17 message 32 [0 ffffffff a 800] ------- [10:255 -1:255 32 0] 
s 3.060000000 _10_ AGT  --- 18 tcp 40 [0 0 0 0] ------- [10:0 11:0 32 0] [0 0] 0 0
r 3.060000000 _10_ RTR  --- 18 tcp 40 [0 0 0 0] ------- [10:0 11:0 32 0] [0 0] 0 0
s 3.060000000 _10_ RTR  --- 18 tcp 60 [0 0 0 0] ------- [10:0 11:0 32 11] [0 0] 0 0
s 3.060175000 _10_ MAC  --- 0 ARP 86 [0 ffffffff a 806] ------- [REQUEST 10/10 0/11]
r 3.060863285 _11_ MAC  --- 0 ARP 28 [0 ffffffff a 806] ------- [REQUEST 10/10 0/11]
r 3.060863344 _6_ MAC  --- 0 ARP 28 [0 ffffffff a 806] ------- [REQUEST 10/10 0/11]
r 3.060863349 _15_ MAC  --- 0 ARP 28 [0 ffffffff a 806] ------- [REQUEST 10/10 0/11]
r 3.060863413 _16_ MAC  --- 0 ARP 28 [0 ffffffff a 806] ------- [REQUEST 10/10 0/11]
r 3.060863422 _5_ MAC  --- 0 ARP 28 [0 ffffffff a 806] ------- [REQUEST 10/10 0/11]
r 3.060863471 _14_ MAC  --- 0 ARP 28 [0 ffffffff a 806] ------- [REQUEST 10/10 0/11]
r 3.060863598 _17_ MAC  --- 0 ARP 28 [0 ffffffff a 806] ------- [REQUEST 10/10 0/11]
r 3.060863605 _12_ MAC  --- 0 ARP 28 [0 ffffffff a 806] ------- [REQUEST 10/10 0/11]
r 3.060863651 _7_ MAC  --- 0 ARP 28 [0 ffffffff a 806] ------- [REQUEST 10/10 0/11]
r 3.060863741 _4_ MAC  --- 0 ARP 28 [0 ffffffff a 806] ------- [REQUEST 10/10 0/11]
s 3.061138285 _11_ MAC  --- 0 RTS 44 [52e a b 0] 
r 3.061490570 _10_ MAC  --- 0 RTS 44 [52e a b 0] 
s 3.061500570 _10_ MAC  --- 0 CTS 38 [3f4 b 0 0] 
r 3.061804856 _11_ MAC  --- 0 CTS 38 [3f4 b 0 0] 
s 3.061814856 _11_ MAC  --- 0 ARP 86 [13a a b 806] ------- [REPLY 11/11 10/10]
r 3.062503141 _10_ MAC  --- 0 ARP 28 [13a a b 806] ------- [REPLY 11/11 10/10]
s 3.062513141 _10_ MAC  --- 0 ACK 38 [0 b 0 0] 
r 3.062817426 _11_ MAC  --- 0 ACK 38 [0 b 0 0] 
s 3.062867141 _10_ MAC  --- 0 RTS 44 [62e b a 0] 
r 3.063219426 _11_ MAC  --- 0 RTS 44 [62e b a 0] 
s 3.063229426 _11_ MAC  --- 0 CTS 38 [4f4 a 0 0] 
r 3.063533711 _10_ MAC  --- 0 CTS 38 [4f4 a 0 0] 
s 3.063543711 _10_ MAC  --- 18 tcp 118 [13a b a 800] ------- [10:0 11:0 32 11] [0 0] 0 0
r 3.064487997 _11_ MAC  --- 18 tcp 60 [13a b a 800] ------- [10:0 11:0 32 11] [0 0] 1 0
s 3.064497997 _11_ MAC  --- 0 ACK 38 [0 a 0 0] 
r 3.064512997 _11_ AGT  --- 18 tcp 60 [13a b a 800] ------- [10:0 11:0 32 11] [0 0] 1 0
s 3.064512997 _11_ AGT  --- 19 ack 40 [0 0 0 0] ------- [11:0 10:0 32 0] [0 0] 0 0
r 3.064512997 _11_ RTR  --- 19 ack 40 [0 0 0 0] ------- [11:0 10:0 32 0] [0 0] 0 0
s 3.064512997 _11_ RTR  --- 19 ack 60 [0 0 0 0] ------- [11:0 10:0 32 10] [0 0] 0 0
r 3.064802282 _10_ MAC  --- 0 ACK 38 [0 a 0 0] 
s 3.064991997 _11_ MAC  --- 0 RTS 44 [62e a b 0] 
r 3.065344282 _10_ MAC  --- 0 RTS 44 [62e a b 0] 
s 3.065354282 _10_ MAC  --- 0 CTS 38 [4f4 b 0 0] 
r 3.065658567 _11_ MAC  --- 0 CTS 38 [4f4 b 0 0] 
s 3.065668567 _11_ MAC  --- 19 ack 118 [13a a b 800] ------- [11:0 10:0 32 10] [0 0] 0 0
r 3.066612852 _10_ MAC  --- 19 ack 60 [13a a b 800] ------- [11:0 10:0 32 10] [0 0] 1 0
s 3.066622852 _10_ MAC  --- 0 ACK 38 [0 b 0 0] 
r 3.066637852 _10_ AGT  --- 19 ack 60 [13a a b 800] ------- [11:0 10:0 32 10] [0 0] 1 0
s 3.066637852 _10_ AGT  --- 20 tcp 1040 [0 0 0 0] ------- [10:0 11:0 32 0] [1 0] 0 0
r 3.066637852 _10_ RTR  --- 20 tcp 1040 [0 0 0 0] ------- [10:0 11:0 32 0] [1 0] 0 0
s 3.066637852 _10_ RTR  --- 20 tcp 1060 [0 0 0 0] ------- [10:0 11:0 32 11] [1 0] 0 0
s 3.066637852 _10_ AGT  --- 21 tcp 1040 [0 0 0 0] ------- [10:0 11:0 32 0] [2 0] 0 0
r 3.066637852 _10_ RTR  --- 21 tcp 1040 [0 0 0 0] ------- [10:0 11:0 32 0] [2 0] 0 0
s 3.066637852 _10_ RTR  --- 21 tcp 1060 [0 0 0 0] ------- [10:0 11:0 32 11] [2 0] 0 0
r 3.066927137 _11_ MAC  --- 0 ACK 38 [0 b 0 0] 
s 3.067196852 _10_ MAC  --- 0 RTS 44 [256e b a 0] 
r 3.067549137 _11_ MAC  --- 0 RTS 44 [256e b a 0] 
s 3.067559137 _11_ MAC  --- 0 CTS 38 [2434 a 0 0] 
r 3.067863423 _10_ MAC  --- 0 CTS 38 [2434 a 0 0] 
s 3.067873423 _10_ MAC  --- 20 tcp 1118 [13a b a 800] ------- [10:0 11:0 32 11] [1 0] 0 0
r 3.076817708 _11_ MAC  --- 20 tcp 1060 [13a b a 800] ------- [10:0 11:0 32 11] [1 0] 1 0
s 3.076827708 _11_ MAC  --- 0 ACK 38 [0 a 0 0] 
r 3.076842708 _11_ AGT  --- 20 tcp 1060 [13a b a 800] ------- [10:0 11:0 32 11] [1 0] 1 0
s 3.076842708 _11_ AGT  --- 22 ack 40 [0 0 0 0] ------- [11:0 10:0 32 0] [1 0] 0 0
r 3.076842708 _11_ RTR  --- 22 ack 40 [0 0 0 0] ------- [11:0 10:0 32 0] [1 0] 0 0
s 3.076842708 _11_ RTR  --- 22 ack 60 [0 0 0 0] ------- [11:0 10:0 32 10] [1 0] 0 0
r 3.077131993 _10_ MAC  --- 0 ACK 38 [0 a 0 0] 
s 3.077281708 _11_ MAC  --- 0 RTS 44 [62e a b 0] 
r 3.077633993 _10_ MAC  --- 0 RTS 44 [62e a b 0] 
s 3.077643993 _10_ MAC  --- 0 CTS 38 [4f4 b 0 0] 
r 3.077948278 _11_ MAC  --- 0 CTS 38 [4f4 b 0 0] 
s 3.077958278 _11_ MAC  --- 22 ack 118 [13a a b 800] ------- [11:0 10:0 32 10] [1 0] 0 0
r 3.078902564 _10_ MAC  --- 22 ack 60 [13a a b 800] ------- [11:0 10:0 32 10] [1 0] 1 0
s 3.078912564 _10_ MAC  --- 0 ACK 38 [0 b 0 0] 
r 3.078927564 _10_ AGT  --- 22 ack 60 [13a a b 800] ------- [11:0 10:0 32 10] [1 0] 1 0
s 3.078927564 _10_ AGT  --- 23 tcp 1040 [0 0 0 0] ------- [10:0 11:0 32 0] [3 0] 0 0
r 3.078927564 _10_ RTR  --- 23 tcp 1040 [0 0 0 0] ------- [10:0 11:0 32 0] [3 0] 0 0
s 3.078927564 _10_ RTR  --- 23 tcp 1060 [0 0 0 0] ------- [10:0 11:0 32 11] [3 0] 0 0
s 3.078927564 _10_ AGT  --- 24 tcp 1040 [0 0 0 0] ------- [10:0 11:0 32 0] [4 0] 0 0
r 3.078927564 _10_ RTR  --- 24 tcp 1040 [0 0 0 0] ------- [10:0 11:0 32 0] [4 0] 0 0
s 3.078927564 _10_ RTR  --- 24 tcp 1060 [0 0 0 0] ------- [10:0 11:0 32 11] [4 0] 0 0
r 3.079216849 _11_ MAC  --- 0 ACK 38 [0 b 0 0] 
s 3.079586564 _10_ MAC  --- 0 RTS 44 [256e b a 0] 
r 3.079938849 _11_ MAC  --- 0 RTS 44 [256e b a 0] 
s 3.079948849 _11_ MAC  --- 0 CTS 38 [2434 a 0 0] 
r 3.080253134 _10_ MAC  --- 0 CTS 38 [2434 a 0 0] 
s 3.080263134 _10_ MAC  --- 21 tcp 1118 [13a b a 800] ------- [10:0 11:0 32 11] [2 0] 0 0
r 3.089207419 _11_ MAC  --- 21 tcp 1060 [13a b a 800] ------- [10:0 11:0 32 11] [2 0] 1 0
s 3.089217419 _11_ MAC  --- 0 ACK 38 [0 a 0 0] 
r 3.089232419 _11_ AGT  --- 21 tcp 1060 [13a b a 800] ------- [10:0 11:0 32 11] [2 0] 1 0
s 3.089232419 _11_ AGT  --- 25 ack 40 [0 0 0 0] ------- [11:0 10:0 32 0] [2 0] 0 0
r 3.089232419 _11_ RTR  --- 25 ack 40 [0 0 0 0] ------- [11:0 10:0 32 0] [2 0] 0 0
s 3.089232419 _11_ RTR  --- 25 ack 60 [0 0 0 0] ------- [11:0 10:0 32 10] [2 0] 0 0
r 3.089521705 _10_ MAC  --- 0 ACK 38 [0 a 0 0] 
s 3.089751419 _11_ MAC  --- 0 RTS 44 [62e a b 0] 
r 3.090103705 _10_ MAC  --- 0 RTS 44 [62e a b 0] 
s 3.090113705 _10_ MAC  --- 0 CTS 38 [4f4 b 0 0] 
r 3.090417990 _11_ MAC  --- 0 CTS 38 [4f4 b 0 0] 
s 3.090427990 _11_ MAC  --- 25 ack 118 [13a a b 800] ------- [11:0 10:0 32 10] [2 0] 0 0
r 3.091372275 _10_ MAC  --- 25 ack 60 [13a a b 800] ------- [11:0 10:0 32 10] [2 0] 1 0
s 3.091382275 _10_ MAC  --- 0 ACK 38 [0 b 0 0] 
r 3.091397275 _10_ AGT  --- 25 ack 60 [13a a b 800] ------- [11:0 10:0 32 10] [2 0] 1 0
s 3.091397275 _10_ AGT  --- 26 tcp 1040 [0 0 0 0] ------- [10:0 11:0 32 0] [5 0] 0 0
r 3.091397275 _10_ RTR  --- 26 tcp 1040 [0 0 0 0] ------- [10:0 11:0 32 0] [5 0] 0 0
s 3.091397275 _10_ RTR  --- 26 tcp 1060 [0 0 0 0] ------- [10:0 11:0 32 11] [5 0] 0 0
s 3.091397275 _10_ AGT  --- 27 tcp 1040 [0 0 0 0] ------- [10:0 11:0 32 0] [6 0] 0 0
r 3.091397275 _10_ RTR  --- 27 tcp 1040 [0 0 0 0] ------- [10:0 11:0 32 0] [6 0] 0 0
s 3.091397275 _10_ RTR  --- 27 tcp 1060 [0 0 0 0] ------- [10:0 11:0 32 11] [6 0] 0 0
r 3.091686560 _11_ MAC  --- 0 ACK 38 [0 b 0 0] 
s 3.091876275 _10_ MAC  --- 0 RTS 44 [256e b a 0] 
r 3.092228560 _11_ MAC  --- 0 RTS 44 [256e b a 0] 
s 3.092238560 _11_ MAC  --- 0 CTS 38 [2434 a 0 0] 
r 3.092542845 _10_ MAC  --- 0 CTS 38 [2434 a 0 0] 
s 3.092552845 _10_ MAC  --- 23 tcp 1118 [13a b a 800] ------- [10:0 11:0 32 11] [3 0] 0 0
r 3.101497131 _11_ MAC  --- 23 tcp 1060 [13a b a 800] ------- [10:0 11:0 32 11] [3 0] 1 0
s 3.101507131 _11_ MAC  --- 0 ACK 38 [0 a 0 0] 
r 3.101522131 _11_ AGT  --- 23 tcp 1060 [13a b a 800] ------- [10:0 11:0 32 11] [3 0] 1 0
s 3.101522131 _11_ AGT  --- 28 ack 40 [0 0 0 0] ------- [11:0 10:0 32 0] [3 0] 0 0
r 3.101522131 _11_ RTR  --- 28 ack 40 [0 0 0 0] ------- [11:0 10:0 32 0] [3 0] 0 0
s 3.101522131 _11_ RTR  --- 28 ack 60 [0 0 0 0] ------- [11:0 10:0 32 10] [3 0] 0 0
r 3.101811416 _10_ MAC  --- 0 ACK 38 [0 a 0 0] 
s 3.101881131 _11_ MAC  --- 0 RTS 44 [62e a b 0] 
s 3.101881416 _10_ MAC  --- 0 RTS 44 [256e b a 0] 
s 3.102767416 _10_ MAC  --- 0 RTS 44 [256e b a 0] 
r 3.103119701 _11_ MAC  --- 0 RTS 44 [256e b a 0] 
s 3.103129701 _11_ MAC  --- 0 CTS 38 [2434 a 0 0] 
r 3.103433986 _10_ MAC  --- 0 CTS 38 [2434 a 0 0] 
s 3.103443986 _10_ MAC  --- 24 tcp 1118 [13a b a 800] ------- [10:0 11:0 32 11] [4 0] 0 0
r 3.112388272 _11_ MAC  --- 24 tcp 1060 [13a b a 800] ------- [10:0 11:0 32 11] [4 0] 1 0
s 3.112398272 _11_ MAC  --- 0 ACK 38 [0 a 0 0] 
r 3.112413272 _11_ AGT  --- 24 tcp 1060 [13a b a 800] ------- [10:0 11:0 32 11] [4 0] 1 0
s 3.112413272 _11_ AGT  --- 29 ack 40 [0 0 0 0] ------- [11:0 10:0 32 0] [4 0] 0 0
r 3.112413272 _11_ RTR  --- 29 ack 40 [0 0 0 0] ------- [11:0 10:0 32 0] [4 0] 0 0
s 3.112413272 _11_ RTR  --- 29 ack 60 [0 0 0 0] ------- [11:0 10:0 32 10] [4 0] 0 0
r 3.112702557 _10_ MAC  --- 0 ACK 38 [0 a 0 0] 
s 3.112752557 _10_ MAC  --- 0 RTS 44 [256e b a 0] 
r 3.113104842 _11_ MAC  --- 0 RTS 44 [256e b a 0] 
s 3.113114842 _11_ MAC  --- 0 CTS 38 [2434 a 0 0] 
r 3.113419127 _10_ MAC  --- 0 CTS 38 [2434 a 0 0] 
s 3.113429127 _10_ MAC  --- 26 tcp 1118 [13a b a 800] ------- [10:0 11:0 32 11] [5 0] 0 0
r 3.122373412 _11_ MAC  --- 26 tcp 1060 [13a b a 800] ------- [10:0 11:0 32 11] [5 0] 1 0
s 3.122383412 _11_ MAC  --- 0 ACK 38 [0 a 0 0] 
r 3.122398412 _11_ AGT  --- 26 tcp 1060 [13a b a 800] ------- [10:0 11:0 32 11] [5 0] 1 0
s 3.122398412 _11_ AGT  --- 30 ack 40 [0 0 0 0] ------- [11:0 10:0 32 0] [5 0] 0 0
r 3.122398412 _11_ RTR  --- 30 ack 40 [0 0 0 0] ------- [11:0 10:0 32 0] [5 0] 0 0
s 3.122398412 _11_ RTR  --- 30 ack 60 [0 0 0 0] ------- [11:0 10:0 32 10] [5 0] 0 0
r 3.122687698 _10_ MAC  --- 0 ACK 38 [0 a 0 0] 
s 3.122797698 _10_ MAC  --- 0 RTS 44 [256e b a 0] 
r 3.123149983 _11_ MAC  --- 0 RTS 44 [256e b a 0] 
s 3.123159983 _11_ MAC  --- 0 CTS 38 [2434 a 0 0] 
r 3.123464268 _10_ MAC  --- 0 CTS 38 [2434 a 0 0] 